LJ spheres

7 atoms

2 atom types

-5 5 xlo xhi
-5 5 ylo yhi
-5 5 zlo zhi

Masses

1 1
2 1

Atoms

1 1 1 0 -3 0 0
2 1 1 0 -2 0 0
3 1 1 0 -1 0 0
4 1 2 0  0 0 0
5 1 2 0  1 0 0
6 1 2 0  2 0 0
7 1 2 0  3 0 0

Velocities
1 1 2 3
2 3 2 1
3 1 0 0
4 0 1 0
5 0 0 1
6 -1 -2 -3
7 -3 -2 -1

